     80
i =       37, E =     -3253.9589398384
Au        13.9607820339       11.2729730263        5.2518614096
Au        13.7179317278        8.4243879167        4.9896395224
Au         8.3243455656       14.8937635810        8.2782156912
Au         8.7945891677       12.7929962979        6.4781850988
Au        14.6431141975        9.4731918439       11.9201342502
Au        15.7086943395       10.9775080096        7.5049111735
Au        11.6448067534        6.5103855286        4.9682927920
Au        13.4019696973       11.9132387457       12.2013597725
Au         8.3671849018       11.4533896740       14.2435012133
Au        10.1019696566       14.7160992666       10.4644274077
Au         6.1745194577       10.3004728683       12.8011802298
Au        16.2567596047        9.2825507808        9.6270853549
Au         6.2004233371        6.6982584464        5.4541599258
Au         4.3548357018        6.4505190490       10.4383028318
Au        12.3272958113        4.7785768650        7.3123304691
Au         6.5979157179       13.1864623543       12.8843499454
Au        11.2168719838        3.8227321523        9.7683607754
Au         5.1819621546        5.7722145101        7.8562501051
Au        11.1403917031       12.0714593314       14.0373555380
Au        11.0724308415       13.8940509036        7.8451042265
Au         3.8321219774        8.2551374064        8.3354489325
Au        15.3391979928        8.1014844543        7.2323442360
Au        11.8031246256       10.1272007240        3.8079366987
Au        13.5960934724       12.7863703620        7.6615885991
Au         4.9253503521        9.2136465418        5.7939937598
Au         8.8344311770        3.7897134509       11.3333215355
Au         9.4951890214        4.1402573810        7.3826953749
Au        10.3188809357        9.6632339152       15.2514222004
Au         9.2701288711       10.7013267407        4.8146821997
Au         8.8984378840        5.9077624682        5.0875971159
Au        10.6504322389        7.5105715806       13.5908287428
Au        11.9058646974       14.2726425062       12.4797747419
Au         5.8776024113        7.5701622367       12.4841625556
Au         8.4516150278        6.4293532705       12.2580136221
Au         5.6251296514       11.9885786648       10.5011214242
Au        15.3892918710        6.8095624006       10.7822050673
Au        12.8397496406        7.2846603452       11.8968601779
Au         4.9753890372       10.8352685700        8.0819504076
Au         7.2262863017        8.9141633510        4.1068208989
Au         7.1494421417        4.1759224340        9.1036287412
Cu        12.3800320200        9.6467846330       13.4206519293
Cu         7.8375488681        6.3200261270        7.6051027257
Cu        12.1128510821        9.8709779950       10.8961451864
Cu         9.8189833082        8.2121620051        4.0877700704
Cu         8.2001006802       11.5453951675       11.4558180271
Cu        10.3376485740        7.9316219986       10.9119207263
Cu        14.2887889031        5.9900653428        8.5685962570
Cu        10.3223054929        6.7799937336        7.3412848984
Cu         9.7633324412       10.2208189492       10.0916581960
Cu        11.1474868398        8.9995126904        6.1264271868
Cu         6.8986476391        6.9544732257        9.8972014738
Cu         5.4905483980        9.1645171858       10.2961691549
Cu         7.1590221427       10.6062633500        6.4850244137
Cu        11.8312458211        6.4678896378        9.4023937005
Cu         6.7891003782       12.7430311437        8.2414018132
Cu        11.3007340037        8.8522119564        8.6619502963
Cu         6.4534031479        8.4480530795        7.8470561143
Cu         9.5363436348       10.4094621226        7.5743267701
Cu         8.5643402062        8.3915023707        6.3126252119
Cu         7.5738137661       13.8632858200       10.5724804283
Cu        12.7871159764        7.4018238859        7.2202863442
Cu        13.6824011655        8.3926038381        9.4403415437
Cu         7.4557155057       10.4352016742        9.1285686240
Cu         9.2396307090       13.5366756203       12.6915259197
Cu        10.9119569756        5.5052429794       11.7539526799
Cu        13.2217499397        9.9470487880        7.4316533599
Cu        10.0086947198       10.0074369705       12.5560827304
Cu        11.6019830001       11.3792160664        8.8251435504
Cu        12.6176153572       13.4011782578       10.0386001037
Cu        10.7954405241       12.1209055097       11.2712289481
Cu         7.9320985423        8.9261401760       11.1973771979
Cu        14.0605113460       11.0579235490        9.7074214391
Cu        11.4325625968       11.5864967278        6.2464330464
Cu        13.3696853925        4.9938122094       10.6516164034
Cu         7.0245782199        4.3605148730        6.4000482699
Cu         8.7963298172        8.2530386852        8.8465893767
Cu         8.1738600375        8.7243002191       13.7297581700
Cu         9.1870062100       12.4544180472        9.2047190013
Cu         9.3046907202        5.8595950061        9.6458273368
Cu         6.3656651334        5.0615886404       11.4454202600
